LAMMPS Description
 
         648  atoms
         432  bonds
         216  angles
 
           2  atom types
           1  bond types
           1  angle types
 
         0 35.233 xlo xhi
         0 35.233 ylo yhi
         0 35.233 zlo zhi
 
Masses
 
  1 15.9994
  2  1.0080
 
Bond Coeffs
 
  1    1.78    0.2708585 -0.327738785 0.231328959
 
Angle Coeffs
 
  1    0.0700  107.400000

Atoms
 
 1 1 1 -1.1128         4.5159160 0.4966030 10.6792195                                                      
 2 1 2 0.5564          2.6800283 0.3548849 10.6826777         
 3 1 2 0.5564          4.7404343 0.4033204 8.8314454          
 4 2 1 -1.1128         26.3044188 50.4067400 1.0990495        
 5 2 2 0.5564          25.6524634 51.9583940 0.5675868        
 6 2 2 0.5564          27.3250599 50.0524164 -0.2587791       
 7 3 1 -1.1128         6.8372365 -0.1855424 19.2453474        
 8 3 2 0.5564          5.7495480 0.2532743 17.8106485         
 9 3 2 0.5564          6.4754296 -1.8730378 19.7750376        
 10 4 1 -1.1128        -2.2332215 -9.5166790 12.1128790       
 11 4 2 0.5564         -0.7781608 -8.4667661 11.8319902       
 12 4 2 0.5564         -3.4833130 -8.2899822 12.8233215       
 13 5 1 -1.1128        0.6450920 -3.9865848 15.7423435        
 14 5 2 0.5564         -0.6691822 -2.6844314 15.4906131       
 15 5 2 0.5564         1.0936695 -4.5198088 14.1085808        
 16 6 1 -1.1128        -7.4555359 13.8354588 21.5133965       
 17 6 2 0.5564         -6.9212348 14.4321775 19.8445795       
 18 6 2 0.5564         -6.1116762 13.9746749 22.6455314       
 19 7 1 -1.1128        42.2363207 5.0381985 3.4261299         
 20 7 2 0.5564         42.6598083 5.6989034 1.8358726         
 21 7 2 0.5564         43.2495918 6.0486160 4.6589493         
 22 8 1 -1.1128        -0.7202048 -3.0014140 -1.5622856       
 23 8 2 0.5564         -0.7506370 -4.4716208 -0.3399069       
 24 8 2 0.5564         -1.6575448 -1.7140023 -0.6717598       
 25 9 1 -1.1128        21.4257133 27.8218688 20.1323848       
 26 9 2 0.5564         22.9792570 28.6387974 20.4560949       
 27 9 2 0.5564         20.9718011 27.4448685 21.8110284       
 28 10 1 -1.1128       32.3347234 10.8815714 10.6618718       
 29 10 2 0.5564        30.7945968 10.6560326 11.6803585       
 30 10 2 0.5564        33.8648346 10.7782789 11.6147850       
 31 11 1 -1.1128       -3.8300210 7.5662928 17.2421056        
 32 11 2 0.5564        -2.8302237 6.4540001 16.3408575        
 33 11 2 0.5564        -2.5345383 8.6463279 17.9067600        
 34 12 1 -1.1128       10.1771193 11.5921650 31.2743982       
 35 12 2 0.5564        9.4633131 13.1711067 32.2003639        
 36 12 2 0.5564        10.4342354 10.4665497 32.7294872       
 37 13 1 -1.1128       4.5050312 15.7664375 11.8935574        
 38 13 2 0.5564        4.7756399 15.3305155 10.1466569        
 39 13 2 0.5564        4.2492001 17.6009457 11.8946346        
 40 14 1 -1.1128       -10.2103974 20.1679116 0.1511048       
 41 14 2 0.5564        -11.1998579 21.8174535 0.3333496       
 42 14 2 0.5564        -8.3815017 20.5158102 0.2168593        
 43 15 1 -1.1128       12.7594299 3.4721069 10.8844437        
 44 15 2 0.5564        14.1262876 2.4771473 10.3671502        
 45 15 2 0.5564        12.5124994 2.7813743 12.5093435        
 46 16 1 -1.1128       3.9856589 6.7844187 20.3275935         
 47 16 2 0.5564        5.4832667 6.8933803 19.3700693         
 48 16 2 0.5564        4.4632493 7.0194439 22.0296697         
 49 17 1 -1.1128       5.7600360 12.7011507 19.6421899        
 50 17 2 0.5564        6.9584057 12.0868953 20.9876748        
 51 17 2 0.5564        4.1020093 12.2418528 20.1289833        
 52 18 1 -1.1128       8.2260339 22.3301361 36.3190217        
 53 18 2 0.5564        6.7185806 23.0591924 35.5638872        
 54 18 2 0.5564        8.0899925 20.6044383 36.0888531        
 55 19 1 -1.1128       44.3416644 16.0740848 -2.2843575       
 56 19 2 0.5564        44.9225662 16.7218073 -3.8530190       
 57 19 2 0.5564        42.7835854 16.9760700 -2.2464496       
 58 20 1 -1.1128       -14.9999646 17.5639448 15.0801457      
 59 20 2 0.5564        -13.2740023 17.6484534 14.5198041      
 60 20 2 0.5564        -14.8954061 18.8778524 16.3091857      
 61 21 1 -1.1128       39.4688170 23.7043449 14.8613343       
 62 21 2 0.5564        39.0931395 22.5546356 13.3971935       
 63 21 2 0.5564        40.8441596 23.1423403 15.8638906       
 64 22 1 -1.1128       1.5915612 23.9747646 18.8430625        
 65 22 2 0.5564        2.5350296 23.8602473 17.2430693        
 66 22 2 0.5564        0.7490175 25.5781971 18.5352640        
 67 23 1 -1.1128       39.6092236 0.6138850 24.2037994        
 68 23 2 0.5564        40.9596218 -0.0188066 23.2326692       
 69 23 2 0.5564        38.9778662 -0.9775949 24.8083228       
 70 24 1 -1.1128       59.2909088 27.1498823 29.0180654       
 71 24 2 0.5564        59.9466437 28.0631868 30.4941303       
 72 24 2 0.5564        58.8783816 28.4093846 27.7307840       
 73 25 1 -1.1128       4.4298390 25.7675477 -0.9756901        
 74 25 2 0.5564        2.7135331 26.1515400 -0.5122197        
 75 25 2 0.5564        5.3759114 26.6851986 0.2673660         
 76 26 1 -1.1128       7.8580098 12.3875129 15.2247853        
 77 26 2 0.5564        7.1985332 12.9531079 16.8588692        
 78 26 2 0.5564        6.5719757 12.5617078 14.0197448        
 79 27 1 -1.1128       -23.2557239 14.9624535 16.2466924      
 80 27 2 0.5564        -22.0540472 14.3304914 15.0258349      
 81 27 2 0.5564        -24.7784651 14.1624947 15.6037132      
 82 28 1 -1.1128       10.7990281 34.8603422 28.6951112       
 83 28 2 0.5564        9.2256234 35.6041384 28.1172330        
 84 28 2 0.5564        10.3557929 33.2143909 29.1707552       
 85 29 1 -1.1128       14.0909497 37.0346610 24.6000750       
 86 29 2 0.5564        13.6049311 35.9735798 25.9788191       
 87 29 2 0.5564        15.8639284 37.2330822 24.9207615       
 88 30 1 -1.1128       1.8388602 20.8397092 29.2110064        
 89 30 2 0.5564        3.2298819 19.6945353 28.5770033        
 90 30 2 0.5564        2.0866732 22.3305141 28.0941783        
 91 31 1 -1.1128       -19.7196686 43.7382749 10.4135240      
 92 31 2 0.5564        -19.2052852 43.8442886 8.7327828       
 93 31 2 0.5564        -21.2021587 42.5931010 10.4839541      
 94 32 1 -1.1128       -12.7965819 24.7669378 9.3868359       
 95 32 2 0.5564        -12.3544238 26.3225602 10.3563787      
 96 32 2 0.5564        -14.2225502 24.1463518 10.2140257      
 97 33 1 -1.1128       6.9978821 42.6411000 15.4243971        
 98 33 2 0.5564        6.8807569 41.6397342 13.8720061        
 99 33 2 0.5564        7.5408571 44.2774137 15.0925423        
 100 34 1 -1.1128      3.4266779 24.1739418 25.8682701        
 101 34 2 0.5564       4.1514067 25.2739513 27.1704803        
 102 34 2 0.5564       2.7364177 25.1892915 24.5885476        
 103 35 1 -1.1128      8.6669826 32.1994191 38.2599593        
 104 35 2 0.5564       8.2378636 30.5275785 38.8255543        
 105 35 2 0.5564       8.9646711 32.1230741 36.4530033        
 106 36 1 -1.1128      -14.4135448 30.6024116 50.9266036      
 107 36 2 0.5564       -16.1928163 31.0712527 50.8901319      
 108 36 2 0.5564       -14.1531217 29.4751901 52.4242115      
 109 37 1 -1.1128      15.0104715 -7.2435087 -8.2719921       
 110 37 2 0.5564       14.6500818 -8.0580751 -6.7148956       
 111 37 2 0.5564       13.9088368 -7.9236589 -9.5152428       
 112 38 1 -1.1128      -4.9325061 3.9184791 -1.2430599        
 113 38 2 0.5564       -4.4205226 3.0530035 0.2970744         
 114 38 2 0.5564       -3.6268944 3.6589442 -2.5328375        
 115 39 1 -1.1128      -11.0671236 14.0704840 10.3612920      
 116 39 2 0.5564       -10.7754255 15.6181129 11.4242629      
 117 39 2 0.5564       -11.0412154 14.7781864 8.7095392       
 118 40 1 -1.1128      -2.3576599 -6.9831044 18.7855393       
 119 40 2 0.5564       -1.2922362 -6.2607189 17.5508112       
 120 40 2 0.5564       -1.5174878 -6.4405641 20.2947123       
 121 41 1 -1.1128      11.0798792 -15.2216484 14.7059232      
 122 41 2 0.5564       9.6332940 -14.7884854 15.6448336       
 123 41 2 0.5564       11.7615223 -16.8424474 15.2674742      
 124 42 1 -1.1128      1.4722345 16.1614091 36.3469897        
 125 42 2 0.5564       0.2109501 15.6491422 35.1026051        
 126 42 2 0.5564       0.5737624 16.0310369 37.9311470        
 127 43 1 -1.1128      20.2007929 23.6914947 -4.1644081       
 128 43 2 0.5564       21.7014243 24.5760755 -4.9792768       
 129 43 2 0.5564       20.5158102 21.8722555 -4.5089807       
 130 44 1 -1.1128      3.3850095 14.8043969 6.4785476         
 131 44 2 0.5564       2.7918434 13.3439788 5.7170636         
 132 44 2 0.5564       5.0961375 15.2021653 5.8374392         
 133 45 1 -1.1128      8.2867508 16.5274112 6.3057511         
 134 45 2 0.5564       9.1927421 16.6672509 4.7724463         
 135 45 2 0.5564       9.0517497 17.7712856 7.3663220         
 136 46 1 -1.1128      3.2522373 0.8427857 15.4269860         
 137 46 2 0.5564       3.9527776 0.8349452 13.7430700         
 138 46 2 0.5564       2.6276073 -0.8539048 15.4832620        
 139 47 1 -1.1128      -3.3659610 5.6375062 25.3215724        
 140 47 2 0.5564       -2.2688995 5.0830228 23.8012878        
 141 47 2 0.5564       -4.9113600 4.7940081 24.7565443        
 142 48 1 -1.1128      13.4942876 18.5407253 -5.6854107       
 143 48 2 0.5564       12.1500688 19.7559514 -5.8926003       
 144 48 2 0.5564       13.5227091 17.6287624 -7.1715668       
 145 49 1 -1.1128      5.2753780 39.6266091 -2.1769076        
 146 49 2 0.5564       6.2401209 41.0403131 -2.7009476        
 147 49 2 0.5564       4.4365853 39.1936729 -3.8215362        
 148 50 1 -1.1128      17.3966096 16.2689723 -3.0222766       
 149 50 2 0.5564       16.2539112 16.9895248 -4.2324949       
 150 50 2 0.5564       18.9928800 16.8696406 -3.3729152       
 151 51 1 -1.1128      2.5094805 -3.6994599 26.2258062        
 152 51 2 0.5564       3.2497051 -3.7611594 27.8553170        
 153 51 2 0.5564       0.8931034 -2.9334972 26.6795295        
 154 52 1 -1.1128      6.3603075 26.6961590 29.6237225        
 155 52 2 0.5564       5.3710170 26.7095761 31.0820241        
 156 52 2 0.5564       7.7622196 27.8783716 29.6205100        
 157 53 1 -1.1128      17.9936685 20.7911433 23.2619600       
 158 53 2 0.5564       16.3522903 20.1410775 22.9433522       
 159 53 2 0.5564       18.9256058 19.4394223 23.9388599       
 160 54 1 -1.1128      28.2189002 12.2378655 40.4373016       
 161 54 2 0.5564       29.9755895 12.0161440 40.2615571       
 162 54 2 0.5564       27.7797279 13.2598104 38.9480085       
 163 55 1 -1.1128      17.1549892 11.4681612 5.8806572        
 164 55 2 0.5564       17.6332978 9.9948174 4.9403862         
 165 55 2 0.5564       15.5725705 11.9280638 5.0225893        
 166 56 1 -1.1128      30.7365822 1.5309993 18.7830826        
 167 56 2 0.5564       32.1614356 2.5065326 19.2668903        
 168 56 2 0.5564       31.0457413 0.7800902 17.2290854        
 169 57 1 -1.1128      3.8410381 7.7061892 26.5532958         
 170 57 2 0.5564       5.5330232 7.7669061 26.9559964         
 171 57 2 0.5564       3.3484622 6.1103723 27.1564963         
 172 58 1 -1.1128      -5.6688567 31.2381155 4.8334089        
 173 58 2 0.5564       -6.3497061 29.6662414 4.3410785        
 174 58 2 0.5564       -4.0147229 31.2749651 4.0994771        
 175 59 1 -1.1128      20.7210344 11.7864667 25.7728389       
 176 59 2 0.5564       19.6130881 13.3360798 25.6842108       
 177 59 2 0.5564       19.7230701 10.3530906 25.4980728       
 178 60 1 -1.1128      11.0844901 16.9259166 37.3302141       
 179 60 2 0.5564       12.6394512 18.0059517 36.9284584       
 180 60 2 0.5564       10.2542957 16.6052679 35.8023706       
 181 61 1 -1.1128      -5.0839676 21.3877298 1.3581971        
 182 61 2 0.5564       -4.0304643 20.7705453 2.6767591        
 183 61 2 0.5564       -3.8607291 21.6636298 0.0080368        
 184 62 1 -1.1128      2.8856116 27.8961350 11.9163664        
 185 62 2 0.5564       4.2082497 28.0868084 10.7587959        
 186 62 2 0.5564       3.3567770 26.4196921 12.8177846        
 187 63 1 -1.1128      14.4935558 13.3375537 12.5571158       
 188 63 2 0.5564       16.0183190 14.1087887 12.1312661       
 189 63 2 0.5564       14.5032879 11.7103674 11.8191400       
 190 64 1 -1.1128      14.3605947 47.9015303 28.0223687       
 191 64 2 0.5564       13.1516425 48.0901249 29.2762019       
 192 64 2 0.5564       14.6054465 46.0972199 27.9942118       
 193 65 1 -1.1128      2.6162689 17.5056468 23.7744537        
 194 65 2 0.5564       2.1806682 15.7543999 23.7139825        
 195 65 2 0.5564       3.5671980 17.7873671 22.2743892        
 196 66 1 -1.1128      12.7342020 24.9800989 36.1708672       
 197 66 2 0.5564       11.1189776 24.2682391 36.1793710       
 198 66 2 0.5564       13.5089897 24.4810222 34.6241265       
 199 67 1 -1.1128      14.5376998 42.5507711 -5.7236399       
 200 67 2 0.5564       15.1843830 40.9582990 -5.0924336       
 201 67 2 0.5564       13.0017683 42.1815187 -6.5647758       
 202 68 1 -1.1128      -2.9953858 0.1043524 2.7845301         
 203 68 2 0.5564       -1.4399901 0.8521738 2.8902414         
 204 68 2 0.5564       -3.4487877 0.0600253 4.6558313         
 205 69 1 -1.1128      -5.7083709 29.4417419 13.5928557       
 206 69 2 0.5564       -7.1494192 29.0171205 12.6174170       
 207 69 2 0.5564       -6.2144962 28.8043374 15.2578177       
 208 70 1 -1.1128      -7.2756907 39.8868244 8.5757466        
 209 70 2 0.5564       -5.9109684 40.9552755 9.1345575        
 210 70 2 0.5564       -8.3720530 41.0669583 7.7023153        
 211 71 1 -1.1128      12.2506967 38.2809352 33.9338096       
 212 71 2 0.5564       12.5698904 37.0790695 35.1356753       
 213 71 2 0.5564       13.6970363 38.0638057 32.8576106       
 214 72 1 -1.1128      35.7076954 47.5328447 23.6066460       
 215 72 2 0.5564       34.0989716 47.9115458 24.3030100       
 216 72 2 0.5564       36.5747016 46.4532443 24.7359463       
 217 73 1 -1.1128      -1.8659343 6.4874671 8.2139964         
 218 73 2 0.5564       -0.4826946 6.3863101 7.0832410         
 219 73 2 0.5564       -1.7936467 7.7899230 9.4218714         
 220 74 1 -1.1128      13.3203761 -0.8703360 2.9134472        
 221 74 2 0.5564       14.6927707 -2.0653004 2.9906426        
 222 74 2 0.5564       11.8036821 -1.7490208 2.8336630        
 223 75 1 -1.1128      19.3152673 -20.1435342 19.8721695      
 224 75 2 0.5564       19.7132436 -21.9841273 20.0237255      
 225 75 2 0.5564       19.7206135 -19.6557959 18.1604557      
 226 76 1 -1.1128      7.1579041 -4.9083554 22.6169965        
 227 76 2 0.5564       6.1683680 -5.0442645 24.0694399        
 228 76 2 0.5564       6.2284046 -5.9787151 21.2951332        
 229 77 1 -1.1128      12.8918619 27.1016942 47.9612456       
 230 77 2 0.5564       11.5220184 27.0778837 49.2052522       
 231 77 2 0.5564       14.3284883 26.5534847 48.9208484       
 232 78 1 -1.1128      7.5304825 -7.4533439 40.7438151        
 233 78 2 0.5564       8.9962295 -8.1082473 41.7604877        
 234 78 2 0.5564       6.5173815 -8.9818487 40.8908358        
 235 79 1 -1.1128      32.4190052 20.7896315 18.5901416       
 236 79 2 0.5564       33.9124557 21.3814937 19.4838308       
 237 79 2 0.5564       33.1225502 19.4131551 17.8456463       
 238 80 1 -1.1128      15.0141753 5.8665787 5.1911151         
 239 80 2 0.5564       16.4418444 6.3313191 4.1634254         
 240 80 2 0.5564       15.2048109 4.1382165 5.3155724         
 241 81 1 -1.1128      -1.8407141 3.8943284 30.1502002        
 242 81 2 0.5564       -1.5365683 5.6523405 30.4487769        
 243 81 2 0.5564       -2.7770468 3.9544784 28.5985462        
 244 82 1 -1.1128      10.9738089 -8.7774182 23.1128606       
 245 82 2 0.5564       12.1726700 -9.0307737 21.7416754       
 246 82 2 0.5564       10.4265631 -7.0926519 23.1463088       
 247 83 1 -1.1128      -0.0618868 3.2662780 21.6951882        
 248 83 2 0.5564       1.3825557 4.2524315 21.2078279         
 249 83 2 0.5564       0.6693957 2.0347814 22.6974988         
 250 84 1 -1.1128      26.0615891 -11.1306561 24.8062441      
 251 84 2 0.5564       24.8578336 -10.2863077 25.9208045      
 252 84 2 0.5564       25.1530088 -12.0534849 23.4630268      
 253 85 1 -1.1128      10.8408856 19.6448355 9.6316499        
 254 85 2 0.5564       10.7644084 19.7022832 11.4569173       
 255 85 2 0.5564       10.9255264 21.4714446 9.3126075        
 256 86 1 -1.1128      17.7224739 15.6187554 24.8689830       
 257 86 2 0.5564       17.4330246 15.1275778 23.1249549       
 258 86 2 0.5564       16.8592660 14.4191573 25.8087437       
 259 87 1 -1.1128      24.3910713 21.1449000 21.1849622       
 260 87 2 0.5564       22.9097151 20.9651870 20.2331072       
 261 87 2 0.5564       24.0048113 19.9392548 22.4992666       
 262 88 1 -1.1128      18.7967832 2.6993224 15.6204183        
 263 88 2 0.5564       19.3802738 4.0708288 14.5473185        
 264 88 2 0.5564       20.3982692 1.7361366 15.6916043        
 265 89 1 -1.1128      16.4911096 10.0233145 22.3288133       
 266 89 2 0.5564       17.7350028 8.8292156 21.7586830        
 267 89 2 0.5564       15.1161261 9.0602346 22.8721095        
 268 90 1 -1.1128      30.2314584 9.5164522 28.4067390        
 269 90 2 0.5564       31.4834019 9.6147369 29.6594384        
 270 90 2 0.5564       30.7093701 8.2540964 27.2500377        
 271 91 1 -1.1128      13.6607914 22.6786016 18.8719942       
 272 91 2 0.5564       13.4785273 21.6556929 20.3795610       
 273 91 2 0.5564       12.4976650 21.9108059 17.6433889       
 274 92 1 -1.1128      15.6099492 24.1382259 6.0291330        
 275 92 2 0.5564       15.5206975 22.4045913 6.0933081        
 276 92 2 0.5564       14.8809686 24.5573672 4.3890965        
 277 93 1 -1.1128      4.8251319 23.0826250 40.9858890        
 278 93 2 0.5564       3.4021871 23.3466197 39.8637697        
 279 93 2 0.5564       6.1895707 22.4180084 40.0763639        
 280 94 1 -1.1128      28.0629978 28.9107289 24.1726190       
 281 94 2 0.5564       27.6935564 29.5405746 22.4531573       
 282 94 2 0.5564       27.3040839 27.2989816 24.1372811       
 283 95 1 -1.1128      16.1984855 19.0074309 7.9339390        
 284 95 2 0.5564       16.6042475 17.2445811 8.1308673        
 285 95 2 0.5564       14.6091693 18.9807858 8.8566355        
 286 96 1 -1.1128      1.4747535 10.1724328 12.8653112        
 287 96 2 0.5564       1.4145355 10.6784825 14.7051107        
 288 96 2 0.5564       3.1406490 10.3780161 12.2433079        
 289 97 1 -1.1128      12.2179100 30.0428638 -1.2519170       
 290 97 2 0.5564       12.5111010 28.5558384 -0.3237686       
 291 97 2 0.5564       13.8845160 30.7118268 -1.6687150       
 292 98 1 -1.1128      24.1609027 52.1978223 -11.2486317      
 293 98 2 0.5564       23.1090812 50.8115193 -11.0240567      
 294 98 2 0.5564       25.7339106 51.4307825 -11.8527204      
 295 99 1 -1.1128      19.7540616 26.1054307 24.4214959       
 296 99 2 0.5564       19.7217473 24.3406156 23.9887486       
 297 99 2 0.5564       18.3071740 26.1311310 25.5804648       
 298 100 1 -1.1128     -6.4250306 48.5039749 31.9645261       
 299 100 2 0.5564      -6.3173729 46.8578346 31.1715971       
 300 100 2 0.5564      -7.5268542 49.2243384 30.6424738       
 301 101 1 -1.1128     9.4050907 43.4695559 27.5472916        
 302 101 2 0.5564      9.5649615 44.2689100 25.9735278        
 303 101 2 0.5564      9.7045366 44.6823820 28.9067605        
 304 102 1 -1.1128     28.8332502 20.9787931 -7.5883270       
 305 102 2 0.5564      30.2029236 20.5723130 -8.7362221       
 306 102 2 0.5564      27.7663109 22.0423308 -8.7813299       
 307 103 1 -1.1128     9.8340396 42.9547945 -0.3812314        
 308 103 2 0.5564      10.5907236 41.3481495 -1.0275914       
 309 103 2 0.5564      10.8076264 43.7802268 0.8199805        
 310 104 1 -1.1128     16.9183766 32.0387924 -2.3136671       
 311 104 2 0.5564      17.5807634 31.9928720 -3.9750953       
 312 104 2 0.5564      18.4208411 31.7768763 -1.3062958       
 313 105 1 -1.1128     19.2455364 49.8558849 9.8021788        
 314 105 2 0.5564      18.7770733 48.6150908 8.5612902        
 315 105 2 0.5564      20.9897535 49.4214369 10.2360599       
 316 106 1 -1.1128     22.6470432 40.0259082 27.9995031       
 317 106 2 0.5564      24.3071674 40.3666258 27.3467917       
 318 106 2 0.5564      22.4429528 41.3288743 29.1786921       
 319 107 1 -1.1128     17.1843367 36.1464897 45.7421404       
 320 107 2 0.5564      17.2246445 36.6737233 47.5700723       
 321 107 2 0.5564      16.5767142 34.4497048 45.7640612       
 322 108 1 -1.1128     33.9319199 20.5579511 12.8992507       
 323 108 2 0.5564      33.7571202 22.3703873 13.2202207       
 324 108 2 0.5564      32.9934819 20.3657660 11.3959926       
 325 109 1 -1.1128     16.3801260 11.4424231 -1.8552820       
 326 109 2 0.5564      15.2364071 11.1334340 -3.2593994       
 327 109 2 0.5564      16.7783668 13.2191057 -2.0682106       
 328 110 1 -1.1128     27.4280499 8.5371962 20.9328727        
 329 110 2 0.5564      27.0298847 10.1790279 20.5827065       
 330 110 2 0.5564      28.7261027 8.3607336 19.5907893        
 331 111 1 -1.1128     26.0243615 0.8178129 20.1461798        
 332 111 2 0.5564      27.7742477 0.9184163 19.7990371        
 333 111 2 0.5564      25.0760970 1.1538024 18.6646157        
 334 112 1 -1.1128     28.4823280 10.8156577 14.1234152       
 335 112 2 0.5564      29.0904419 9.6037575 15.3024341        
 336 112 2 0.5564      26.5761614 10.6404612 14.1595657       
 337 113 1 -1.1128     12.8142886 19.1470817 22.7111049       
 338 113 2 0.5564      11.2749745 19.5384439 23.3182738       
 339 113 2 0.5564      12.6515076 17.3446421 22.6219098       
 340 114 1 -1.1128     27.9552835 -8.0115878 33.0150248       
 341 114 2 0.5564      26.5281624 -8.7311388 33.7854661       
 342 114 2 0.5564      27.5168670 -6.1630956 32.6803543       
 343 115 1 -1.1128     19.8496818 6.4658486 11.9760062        
 344 115 2 0.5564      20.5074954 5.8190899 10.4515831        
 345 115 2 0.5564      18.2709858 7.0381522 11.4887781        
 346 116 1 -1.1128     3.7722143 9.0729146 5.1834995          
 347 116 2 0.5564      4.7961057 7.7491427 4.3689709          
 348 116 2 0.5564      4.4513063 9.3584333 6.8624076          
 349 117 1 -1.1128     19.8366427 26.1681696 4.4252658        
 350 117 2 0.5564      18.1995542 25.5887796 5.0172414        
 351 117 2 0.5564      20.7988911 25.5060096 5.7491701        
 352 118 1 -1.1128     15.0886305 -4.3550436 9.4238556        
 353 118 2 0.5564      13.4142388 -3.9241861 8.8485475        
 354 118 2 0.5564      14.6664658 -5.6321204 10.6307858       
 355 119 1 -1.1128     16.1895849 2.5972205 30.2979768        
 356 119 2 0.5564      17.8478761 2.7125316 30.9960416        
 357 119 2 0.5564      16.0608001 1.2581928 29.1514800        
 358 120 1 -1.1128     25.9754175 21.2796374 8.5277854        
 359 120 2 0.5564      25.0080668 20.0467802 7.4942753        
 360 120 2 0.5564      25.0377355 22.7050578 8.5875574        
 361 121 1 -1.1128     20.0174895 8.0913531 3.0594664         
 362 121 2 0.5564      19.8356978 6.3966658 2.3194497         
 363 121 2 0.5564      20.8278040 9.0525056 1.7491323         
 364 122 1 -1.1128     5.7096370 0.5868676 5.0367245          
 365 122 2 0.5564      6.8962337 -0.6615137 4.3305528         
 366 122 2 0.5564      6.2845105 2.3201111 4.5933759          
 367 123 1 -1.1128     13.0130500 14.1379472 21.7019912       
 368 123 2 0.5564      13.0700630 14.3548877 19.8956021       
 369 123 2 0.5564      14.1011353 12.8007393 21.9686315       
 370 124 1 -1.1128     33.9831314 7.9321248 37.6149958        
 371 124 2 0.5564      32.2035765 7.3735785 37.5097381        
 372 124 2 0.5564      35.1562733 6.6909339 37.1246119        
 373 125 1 -1.1128     18.1181259 22.0886291 47.1137035       
 374 125 2 0.5564      17.6839046 21.3935879 45.5401287       
 375 125 2 0.5564      18.9881557 20.5626754 47.8677042       
 376 126 1 -1.1128     30.6307575 23.4335471 43.2841738       
 377 126 2 0.5564      31.3303341 24.1408716 44.8405521       
 378 126 2 0.5564      29.1110399 22.3101050 43.7227792       
 379 127 1 -1.1128     45.1113498 22.3641512 -6.3608744       
 380 127 2 0.5564      44.0740792 23.6270551 -5.6811021       
 381 127 2 0.5564      44.3662309 22.1421084 -7.9247549       
 382 128 1 -1.1128     37.9026121 11.2030704 -0.6136980       
 383 128 2 0.5564      37.8687860 13.0864659 -0.1303815       
 384 128 2 0.5564      37.2276020 10.1472049 0.7946638        
 385 129 1 -1.1128     8.5021040 28.4862965 15.5600983        
 386 129 2 0.5564      7.9270037 30.0269901 14.6869126        
 387 129 2 0.5564      9.9317384 28.9986012 16.3979083        
 388 130 1 -1.1128     40.1253078 17.6891770 18.5863433       
 389 130 2 0.5564      38.8006099 17.4395442 17.4108959       
 390 130 2 0.5564      40.5281974 15.8976033 19.0045963       
 391 131 1 -1.1128     22.4712986 9.4833442 19.2249384        
 392 131 2 0.5564      23.9823235 8.8188221 19.9817736        
 393 131 2 0.5564      22.9939969 10.2772937 17.5699730       
 394 132 1 -1.1128     27.8521044 26.3216154 39.8363687       
 395 132 2 0.5564      27.7254928 25.1539537 38.4614041       
 396 132 2 0.5564      29.0940323 25.5313319 40.8883792       
 397 133 1 -1.1128     12.5200205 41.9524839 22.3804028       
 398 133 2 0.5564      11.5256845 41.0915247 21.1577501       
 399 133 2 0.5564      13.0003888 40.5457718 23.3434072       
 400 134 1 -1.1128     11.1368167 25.0020197 8.1060552        
 401 134 2 0.5564      11.6299784 25.9049308 9.5736164        
 402 134 2 0.5564      12.7556315 24.8780537 7.2987454        
 403 135 1 -1.1128     16.3722269 33.4617560 16.7057825       
 404 135 2 0.5564      17.1367723 35.0428898 16.2654385       
 405 135 2 0.5564      16.0620284 33.4307645 18.5505519       
 406 136 1 -1.1128     15.2785858 31.6162496 22.0980778       
 407 136 2 0.5564      16.9727251 31.4408831 22.6670743       
 408 136 2 0.5564      14.7247260 32.8532643 23.1521669       
 409 137 1 -1.1128     21.7660529 18.7377292 31.3314679       
 410 137 2 0.5564      22.9066915 17.7640479 30.4162736       
 411 137 2 0.5564      22.8554799 19.3154562 32.7410145       
 412 138 1 -1.1128     32.3419044 19.8139660 31.1375820       
 413 138 2 0.5564      33.9084872 19.9073184 30.1836484       
 414 138 2 0.5564      30.9102480 20.1688565 30.0090377       
 415 139 1 -1.1128     19.2653785 31.0708747 6.3086423        
 416 139 2 0.5564      17.8329851 30.7394168 7.5792752        
 417 139 2 0.5564      19.4443356 29.4124512 5.5705721        
 418 140 1 -1.1128     23.0295237 35.4208350 15.6192089       
 419 140 2 0.5564      22.7283014 33.6314534 15.8539507       
 420 140 2 0.5564      23.7610366 35.6661214 13.9780386       
 421 141 1 -1.1128     19.2122772 41.0066760 19.8084858       
 422 141 2 0.5564      20.5352744 42.2975478 19.4441466       
 423 141 2 0.5564      19.3128106 39.9754525 18.3706688       
 424 142 1 -1.1128     31.6676502 34.1129556 14.8001261       
 425 142 2 0.5564      32.2468512 34.9433012 13.2800683       
 426 142 2 0.5564      30.6755440 32.5373021 14.2877836       
 427 143 1 -1.1128     15.7066465 19.7260937 1.0072051        
 428 143 2 0.5564      15.7149991 18.5899715 -0.3211552       
 429 143 2 0.5564      16.9363668 19.0193362 2.0191722        
 430 144 1 -1.1128     25.2261412 -16.7794629 12.9627266      
 431 144 2 0.5564      25.7012183 -15.7958794 14.4103512      
 432 144 2 0.5564      25.4625459 -15.6216844 11.6409011      
 433 145 1 -1.1128     21.9495453 11.9492665 -0.0002671       
 434 145 2 0.5564      21.8735783 11.5197507 -1.6981853       
 435 145 2 0.5564      23.6340470 12.6364465 0.1007763        
 436 146 1 -1.1128     33.1284084 -2.8421857 28.7128746       
 437 146 2 0.5564      32.8338001 -4.5890106 28.1886646       
 438 146 2 0.5564      33.7484275 -2.9229715 30.4266671       
 439 147 1 -1.1128     19.0319973 2.7684297 37.8958091        
 440 147 2 0.5564      19.4080528 1.1311919 37.2457433        
 441 147 2 0.5564      19.6516385 2.6971303 39.5978853        
 442 148 1 -1.1128     41.1106109 9.8239295 10.3240455        
 443 148 2 0.5564      41.7000165 8.0946602 10.1462979        
 444 148 2 0.5564      42.7380430 10.8311346 10.1317659       
 445 149 1 -1.1128     28.2483800 -8.4999119 17.9405672       
 446 149 2 0.5564      29.9478106 -8.0975892 18.4616780       
 447 149 2 0.5564      28.1650431 -10.2648404 17.3253291      
 448 150 1 -1.1128     34.7359983 23.0865934 39.7840233       
 449 150 2 0.5564      35.3807728 21.2592284 39.7210954       
 450 150 2 0.5564      33.5269516 22.8928965 41.1268626       
 451 151 1 -1.1128     24.8776757 3.4618079 0.9031114         
 452 151 2 0.5564      24.6410820 4.5689984 2.3279723         
 453 151 2 0.5564      26.4903679 3.9629633 0.3326617         
 454 152 1 -1.1128     24.7402926 1.1696421 10.9867535        
 455 152 2 0.5564      26.0982497 2.3553545 10.6386093        
 456 152 2 0.5564      24.4228187 -0.1029307 9.6780994        
 457 153 1 -1.1128     5.8212442 17.5395674 27.9637872        
 458 153 2 0.5564      5.2678758 17.5987725 26.2091767        
 459 153 2 0.5564      5.1288675 16.0340982 28.7737238        
 460 154 1 -1.1128     23.9944178 28.7493463 12.2075543       
 461 154 2 0.5564      22.7840483 29.2062821 13.4484996       
 462 154 2 0.5564      23.8638377 30.0623279 11.0333164       
 463 155 1 -1.1128     23.8817901 -3.0413061 43.2499697       
 464 155 2 0.5564      24.6879472 -2.3670330 41.7219373       
 465 155 2 0.5564      22.1360613 -3.1734169 42.5481255       
 466 156 1 -1.1128     13.0294339 11.6155787 37.5617055       
 467 156 2 0.5564      14.4651343 11.9201270 36.5782921       
 468 156 2 0.5564      12.4132510 13.3673736 37.8553689       
 469 157 1 -1.1128     -0.5383924 18.2953822 5.9499535        